 &FCI NORB=   2,NELEC= 2,MS2=0,
  ORBSYM=1,1,
  ISYM=1,
 &END
 0.6747559268144482    1    1    1    1
 0.6637114013508137    1    1    2    2
 0.1812104620151971    2    1    2    1
 0.6637114013508137    2    2    1    1
 0.6976515044904633    2    2    2    2
 -1.253309786645977    1    1  0  0
 -0.4750688487721758    2    2  0  0
 0.7151043390810812  0  0  0  0
